 +-------------------------------------------------+
 |                                                 |
 |      CCC   AA    SSS  TTTTT  EEEEE  PPPP        |
 |     C     A  A  S       T    E      P   P       |
 |     C     AAAA   SS     T    EEE    PPPP        |
 |     C     A  A     S    T    E      P           |
 |      CCC  A  A  SSS     T    EEEEE  P           |
 |                                                 |
 +-------------------------------------------------+
 |                                                 |
 | Welcome to Academic Release CASTEP version 5.501|
 | Ab Initio Total Energy Program                  |
 |                                                 |
 | Authors:                                        |
 | M. Segall, M. Probert, C. Pickard, P. Hasnip,   |
 | S. Clark, K. Refson, M. Payne                   |
 |                                                 |
 | Contributors:                                   |
 | P. Lindan, P. Haynes, J. White, V. Milman,      |
 | N. Govind, M. Gibson, P. Tulip, V. Cocula,      |
 | B. Montanari, D. Quigley, M. Glover,            |
 | L. Bernasconi, A. Perlov, M. Plummer,           |
 | E. McNellis, J. Meyer, J. Gale, D. Jochym       |
 |                                                 |
 | Copyright (c) 2000 - 2010                       |
 |                                                 |
 |     Distributed under the terms of an           |
 |     Agreement between the United Kingdom        |
 |     Car-Parrinello (UKCP) Consortium,           |
 |     Daresbury Laboratory and Accelrys, Inc.     |
 |                                                 |
 | Please cite                                     |
 |                                                 |
 |     "First principles methods using CASTEP"     |
 |                                                 |
 |         Zeitschrift fuer Kristallographie       |
 |           220(5-6) pp. 567-570 (2005)           |
 |                                                 |
 | S. J. Clark, M. D. Segall, C. J. Pickard,       |
 | P. J. Hasnip, M. J. Probert, K. Refson,         |
 | M. C. Payne                                     |
 |                                                 |
 |       in all publications arising from          |
 |              your use of CASTEP                 |
 |                                                 |
 +-------------------------------------------------+
 
 
 Pseudo atomic calculation performed for Pd 4s2 4p6 4d10
 
 Converged in 50 iterations to a total energy of -3508.6287 eV
 
Calculation parallelised over   64 nodes.
K-points are distributed over    8 groups, each containing    8 nodes.

 ************************************ Title ************************************
 safe_400

 ***************************** General Parameters ******************************
  
 output verbosity                               : normal  (1)
 write checkpoint data to                       : substrate_2layers.check
 type of calculation                            : geometry optimization
 stress calculation                             : off
 density difference calculation                 : off
 electron localisation func (ELF) calculation   : off
 Hirshfeld analysis                             : off
 unlimited duration calculation
 timing information                             : on
 memory usage estimate                          : on
 write final potential to formatted file        : off
 write final density to formatted file          : off
  
 output         length unit                     : A
 output           mass unit                     : amu
 output           time unit                     : ps
 output         charge unit                     : e
 output         energy unit                     : eV
 output          force unit                     : eV/A
 output       velocity unit                     : A/ps
 output       pressure unit                     : GPa
 output     inv_length unit                     : 1/A
 output      frequency unit                     : cm-1
 output force constant unit                     : eV/A**2
 output         volume unit                     : A**3
 output   IR intensity unit                     : (D/A)**2/amu
 output         dipole unit                     : D
 output         efield unit                     : eV/A/e
 output        entropy unit                     : J/mol/K
  
 wavefunctions paging                           : none
 random number generator seed                   : randomised (182612326)
 data distribution                              : optimal for this architecture
 optimization strategy                          : maximize speed(+++)

 *********************** Exchange-Correlation Parameters ***********************
  
 using functional                               : Perdew Burke Ernzerhof
 Divergence correction                          : off
 DFT+D: Semi-empirical dispersion correction    : off

 ************************* Pseudopotential Parameters **************************
  
 pseudopotential representation                 : reciprocal space
 <beta|phi> representation                      : reciprocal space

 **************************** Basis Set Parameters *****************************
  
 plane wave basis set cut-off                   :   400.0000   eV
 size of standard grid                          :     2.0000
 largest prime factor in FFT                    :          5
 finite basis set correction                    : none

 **************************** Electronic Parameters ****************************
  
 number of  electrons                           :  252.0    
 net charge of system                           :  0.000    
 net spin   of system                           :  0.000    
 number of  up  spins                           :  126.0    
 number of down spins                           :  126.0    
 treating system as non-spin-polarized
 number of bands                                :        150

 ********************* Electronic Minimization Parameters **********************
  
 Method: Treating system as metallic with density mixing treatment of electrons,
         and number of  SD  steps               :          1
         and number of  CG  steps               :          4
  
 total energy / atom convergence tol.           : 0.1000E-05   eV
 eigen-energy convergence tolerance             : 0.1000E-06   eV
 max force / atom convergence tol.              : ignored
 convergence tolerance window                   :          3   cycles
 max. number of SCF cycles                      :        300
 number of fixed-spin iterations                :         10
 smearing scheme                                : Gaussian
 smearing width                                 : 0.5000E-01   eV
 Fermi energy convergence tolerance             : 0.1000E-07   eV

 ************************** Density Mixing Parameters **************************
  
 density-mixing scheme                          : Pulay
 max. length of mixing history                  :          7
 charge density mixing amplitude                : 0.8000    
 cut-off energy for mixing                      :  400.0       eV
 charge density mixing g-vector                 :  1.500       1/A

 *********************** Population Analysis Parameters ************************
  
 Population analysis with cutoff                :  3.000       A

 ********************** Geometry Optimization Parameters ***********************
  
 optimization method                            : BFGS
 variable cell method                           : fixed basis quality
 max. number of steps                           :        200
 estimated bulk modulus                         :  500.0       GPa
 estimated <frequency>                          :  1668.       cm-1
 geom line minimiser                            : on
 with line minimiser tolerance                  :     0.4000
 total energy convergence tolerance             : 0.2000E-04   eV/atom
        max ionic |force| tolerance             : 0.5000E-01   eV/A
 max ionic |displacement| tolerance             : 0.1000E-02   A
   max |stress component| tolerance             : 0.1000       GPa
 convergence tolerance window                   :          2   steps
 backup results every                           :          5   steps

 *******************************************************************************
  
 
                           -------------------------------
                                      Unit Cell
                           -------------------------------
        Real Lattice(A)                      Reciprocal Lattice(1/A)
   6.2265247   0.0000000   0.0000000        1.0090999   0.0000000   0.0000000
   0.0000000   6.2265247   0.0000000        0.0000000   1.0090999   0.0000000
   0.0000000   0.0000000  13.0389687        0.0000000   0.0000000   0.4818775
 
                       Lattice parameters(A)       Cell Angles
                    a =    6.226525          alpha =   90.000000
                    b =    6.226525          beta  =   90.000000
                    c =   13.038969          gamma =   90.000000
 
                       Current cell volume =  505.515729       A**3
 
                           -------------------------------
                                     Cell Contents
                           -------------------------------
                         Total number of ions in cell =   14
                      Total number of species in cell =    1
                        Max number of any one species =   14
 
            xxxxxxxxxxxxxxxxxxxxxxxxxxxxxxxxxxxxxxxxxxxxxxxxxxxxxxxxxxxx
            x  Element    Atom        Fractional coordinates of atoms  x
            x            Number           u          v          w      x
            x----------------------------------------------------------x
            x  Pd           1         0.391733   0.822533   0.294978   x
            x  Pd           2        -0.002652   1.006230   0.292660   x
            x  Pd           3         0.219588   0.400761   0.296143   x
            x  Pd           4         0.782737   0.582561   0.298401   x
            x  Pd           5         0.900000   0.300000   0.149628   x
            x  Pd           6         0.700000   0.900000   0.149628   x
            x  Pd           7         0.500000   0.500000   0.149628   x
            x  Pd           8         0.300000   0.100000   0.149628   x
            x  Pd           9         0.100000   0.700000   0.149628   x
            x  Pd          10         0.600000   0.200000   0.000000   x
            x  Pd          11         0.400000   0.800000   0.000000   x
            x  Pd          12         0.200000   0.400000   0.000000   x
            x  Pd          13         0.000000   0.000000   0.000000   x
            x  Pd          14         0.800000   0.600000   0.000000   x
            xxxxxxxxxxxxxxxxxxxxxxxxxxxxxxxxxxxxxxxxxxxxxxxxxxxxxxxxxxxx
 
 
                         No user defined ionic velocities
 
                           -------------------------------
                                   Details of Species
                           -------------------------------
 
                               Mass of species in AMU
                                    Pd  106.4200000
 
                          Electric Quadrupole Moment (Barn)
                                    Pd    0.6600000 Isotope105
 
                          Files used for pseudopotentials:
                                    Pd Pd_OTF.usp
 
                           -------------------------------
                              k-Points For BZ Sampling
                           -------------------------------
                       MP grid size for SCF calculation is  4  4  1
                         Number of kpoints used =           8
 
             +++++++++++++++++++++++++++++++++++++++++++++++++++++++
             +  Number       Fractional coordinates        Weight  +
             +-----------------------------------------------------+
             +     1  -0.125000   0.375000   0.000000   0.1250000  +
             +     2  -0.125000   0.125000   0.000000   0.1250000  +
             +     3   0.125000   0.125000   0.000000   0.1250000  +
             +     4   0.125000   0.375000   0.000000   0.1250000  +
             +     5  -0.375000   0.375000   0.000000   0.1250000  +
             +     6  -0.375000   0.125000   0.000000   0.1250000  +
             +     7   0.375000   0.125000   0.000000   0.1250000  +
             +     8   0.375000   0.375000   0.000000   0.1250000  +
             +++++++++++++++++++++++++++++++++++++++++++++++++++++++
 
                           -------------------------------
                               Symmetry and Constraints
                           -------------------------------
 
         There are no symmetry operations specified or generated for this cell
                      Number of ionic constraints     =          15
                      Maximum deviation from symmetry =  0.00000         ANG
               Point group of crystal =     1: C1, 1, 1
 
                        Centre of mass is NOT constrained
             Set iprint > 1 for details of linear ionic constraints
 
                         Number of cell constraints= 6
                         Cell constraints are:  0 0 0 0 0 0
 
                         External pressure/stress (GPa)
                          0.00000   0.00000   0.00000
                                    0.00000   0.00000
                                              0.00000
  
+---------------- MEMORY AND SCRATCH DISK ESTIMATES PER NODE -----------------+
|                                                     Memory          Disk    |
| Model and support data                               70.4 MB         0.0 MB |
| Electronic energy minimisation requirements          11.3 MB         0.0 MB |
|                                               ----------------------------- |
| Approx. total storage required per node              81.7 MB         0.0 MB |
|                                                                             |
| Requirements will fluctuate during execution and may exceed these estimates |
+-----------------------------------------------------------------------------+
------------------------------------------------------------------------ <-- SCF
SCF loop      Energy           Fermi           Energy gain       Timer   <-- SCF
                               energy          per atom          (sec)   <-- SCF
------------------------------------------------------------------------ <-- SCF
Initial  -4.87429748E+004  5.82459777E+001                         3.21  <-- SCF
      1  -4.88234127E+004  5.31181317E+000   5.74556498E+000       6.62  <-- SCF
      2  -4.91694087E+004  3.09978983E+000   2.47139955E+001       9.57  <-- SCF
      3  -4.91843403E+004  3.37669071E+000   1.06654198E+000      12.29  <-- SCF
      4  -4.91904242E+004 -4.85978698E-002   4.34569033E-001      15.52  <-- SCF
      5  -4.91758280E+004  1.54551235E+000  -1.04259007E+000      18.83  <-- SCF
      6  -4.91722961E+004  1.52845377E+000  -2.52277268E-001      22.19  <-- SCF
      7  -4.91719862E+004  1.50771596E+000  -2.21341448E-002      25.43  <-- SCF
      8  -4.91719330E+004  1.53217363E+000  -3.79886191E-003      28.65  <-- SCF
      9  -4.91716017E+004  1.51046011E+000  -2.36686784E-002      31.91  <-- SCF
     10  -4.91716802E+004  1.51257960E+000   5.60666354E-003      35.20  <-- SCF
     11  -4.91716399E+004  1.51106064E+000  -2.87361681E-003      38.29  <-- SCF
     12  -4.91716488E+004  1.50731137E+000   6.31749074E-004      41.59  <-- SCF
     13  -4.91716434E+004  1.50519305E+000  -3.85900037E-004      44.66  <-- SCF
     14  -4.91716460E+004  1.50272710E+000   1.86057649E-004      47.74  <-- SCF
     15  -4.91716442E+004  1.50463048E+000  -1.26859223E-004      50.71  <-- SCF
     16  -4.91716452E+004  1.50247048E+000   6.82094641E-005      53.55  <-- SCF
     17  -4.91716450E+004  1.50210617E+000  -1.29710922E-005      56.29  <-- SCF
     18  -4.91716453E+004  1.50023750E+000   2.42111441E-005      58.96  <-- SCF
     19  -4.91716458E+004  1.49805325E+000   3.51796822E-005      61.71  <-- SCF
     20  -4.91716460E+004  1.49563551E+000   1.67701846E-005      64.43  <-- SCF
     21  -4.91716463E+004  1.49414195E+000   1.92548147E-005      66.93  <-- SCF
     22  -4.91716465E+004  1.49326156E+000   1.23839309E-005      69.35  <-- SCF
     23  -4.91716470E+004  1.48983628E+000   3.76884117E-005      71.98  <-- SCF
     24  -4.91716473E+004  1.48733869E+000   2.18038296E-005      74.62  <-- SCF
     25  -4.91716473E+004  1.48732025E+000  -3.12151877E-006      77.08  <-- SCF
     26  -4.91716474E+004  1.48438149E+000   7.20983979E-006      79.67  <-- SCF
     27  -4.91716474E+004  1.48235391E+000   1.11563243E-006      81.97  <-- SCF
     28  -4.91716473E+004  1.48000268E+000  -7.17939679E-006      84.36  <-- SCF
     29  -4.91716474E+004  1.48188201E+000   7.41696135E-006      86.74  <-- SCF
     30  -4.91716474E+004  1.48017371E+000  -2.72770165E-006      89.10  <-- SCF
     31  -4.91716473E+004  1.47909635E+000  -7.29733099E-007      91.41  <-- SCF
     32  -4.91716474E+004  1.47913032E+000   2.50039672E-006      93.76  <-- SCF
     33  -4.91716474E+004  1.47981533E+000   4.39242310E-007      96.12  <-- SCF
     34  -4.91716474E+004  1.47902144E+000  -1.48060328E-007      98.36  <-- SCF
------------------------------------------------------------------------ <-- SCF
 
Final energy, E             =  -49171.59170051     eV
Final free energy (E-TS)    =  -49171.64737897     eV
(energies not corrected for finite basis set)
 
NB est. 0K energy (E-0.5TS)      =  -49171.61953974     eV
 
 
Writing model to substrate_2layers.check
 
+---------------- MEMORY AND SCRATCH DISK ESTIMATES PER NODE -----------------+
|                                                     Memory          Disk    |
| Model and support data                               70.4 MB         0.0 MB |
| Geometry minimisation requirements                   14.3 MB         0.0 MB |
|                                               ----------------------------- |
| Approx. total storage required per node              84.7 MB         0.0 MB |
|                                                                             |
| Requirements will fluctuate during execution and may exceed these estimates |
+-----------------------------------------------------------------------------+
 
 
 *********************************** Forces ***********************************
 *                                                                            *
 *                        Cartesian components (eV/A)                         *
 * -------------------------------------------------------------------------- *
 *                   x                    y                    z              *
 *                                                                            *
 * Pd        1      0.18766             -0.58147              0.03768         *
 * Pd        2      0.00151             -0.20077              0.11261         *
 * Pd        3     -0.44853              0.15458             -0.08140         *
 * Pd        4      0.38747              0.43341             -0.24772         *
 * Pd        5     -0.17588              0.05812              0.05177         *
 * Pd        6     -0.09250              0.09529              0.12276         *
 * Pd        7      0.08124             -0.11411             -0.07762         *
 * Pd        8      0.24295              0.30756             -0.23997         *
 * Pd        9     -0.19684             -0.12457             -0.03033         *
 * Pd       10     -0.01820(cons'd)     -0.01015(cons'd)      0.05661(cons'd) *
 * Pd       11     -0.00733(cons'd)      0.11162(cons'd)      0.03444(cons'd) *
 * Pd       12      0.12735(cons'd)      0.00466(cons'd)      0.08950(cons'd) *
 * Pd       13     -0.07409(cons'd)     -0.01429(cons'd)      0.06491(cons'd) *
 * Pd       14     -0.01480(cons'd)     -0.11988(cons'd)      0.10676(cons'd) *
 *                                                                            *
 ******************************************************************************
 BFGS: finished iteration     0 with enthalpy= -4.91716474E+004 eV
  
 +-----------+-----------------+-----------------+------------+-----+ <-- BFGS
 | Parameter |      value      |    tolerance    |    units   | OK? | <-- BFGS
 +-----------+-----------------+-----------------+------------+-----+ <-- BFGS
 |  dE/ion   |   0.000000E+000 |   2.000000E-005 |         eV | No  | <-- BFGS
 |  |F|max   |   6.319326E-001 |   5.000000E-002 |       eV/A | No  | <-- BFGS
 |  |dR|max  |   0.000000E+000 |   1.000000E-003 |          A | No  | <-- BFGS
 +-----------+-----------------+-----------------+------------+-----+ <-- BFGS
  

================================================================================
 Starting BFGS iteration          1 ...
================================================================================
  
 +------------+-------------+-------------+-----------------+ <-- min BFGS
 |    Step    |   lambda    |   F.delta   |    enthalpy     | <-- min BFGS
 +------------+-------------+-------------+-----------------+ <-- min BFGS
 |  previous  |    0.000000 |    0.000048 |   -49171.647379 | <-- min BFGS
 +------------+-------------+-------------+-----------------+ <-- min BFGS
  

--------------------------------------------------------------------------------
 BFGS: starting iteration         1 with trial guess (lambda=  1.000000)
--------------------------------------------------------------------------------
 
                           -------------------------------
                                     Cell Contents
                           -------------------------------
 
            xxxxxxxxxxxxxxxxxxxxxxxxxxxxxxxxxxxxxxxxxxxxxxxxxxxxxxxxxxxx
            x  Element    Atom        Fractional coordinates of atoms  x
            x            Number           u          v          w      x
            x----------------------------------------------------------x
            x  Pd           1         0.391761   0.822447   0.294980   x
            x  Pd           2        -0.002652   1.006200   0.292668   x
            x  Pd           3         0.219522   0.400784   0.296137   x
            x  Pd           4         0.782794   0.582625   0.298383   x
            x  Pd           5         0.899974   0.300009   0.149632   x
            x  Pd           6         0.699986   0.900014   0.149637   x
            x  Pd           7         0.500012   0.499983   0.149623   x
            x  Pd           8         0.300036   0.100045   0.149611   x
            x  Pd           9         0.099971   0.699982   0.149626   x
            x  Pd          10         0.600000   0.200000   0.000000   x
            x  Pd          11         0.400000   0.800000   0.000000   x
            x  Pd          12         0.200000   0.400000   0.000000   x
            x  Pd          13         0.000000   0.000000   0.000000   x
            x  Pd          14         0.800000   0.600000   0.000000   x
            xxxxxxxxxxxxxxxxxxxxxxxxxxxxxxxxxxxxxxxxxxxxxxxxxxxxxxxxxxxx
 
 
------------------------------------------------------------------------ <-- SCF
SCF loop      Energy           Fermi           Energy gain       Timer   <-- SCF
                               energy          per atom          (sec)   <-- SCF
------------------------------------------------------------------------ <-- SCF
Initial  -4.91716343E+004  1.47922331E+000                       107.46  <-- SCF
      1  -4.91716487E+004  1.47921428E+000   1.02707167E-003     109.45  <-- SCF
      2  -4.91716487E+004  1.47921427E+000   4.69436940E-007     111.72  <-- SCF
      3  -4.91716487E+004  1.47917296E+000   2.83822320E-006     114.03  <-- SCF
      4  -4.91716487E+004  1.47914604E+000  -4.02965046E-006     116.27  <-- SCF
      5  -4.91716487E+004  1.47919156E+000   1.57299691E-006     118.40  <-- SCF
      6  -4.91716487E+004  1.47916772E+000  -4.31469921E-008     123.77  <-- SCF
      7  -4.91716487E+004  1.47916807E+000   1.30305852E-008     125.94  <-- SCF
------------------------------------------------------------------------ <-- SCF
 
Final energy, E             =  -49171.59297450     eV
Final free energy (E-TS)    =  -49171.64869188     eV
(energies not corrected for finite basis set)
 
NB est. 0K energy (E-0.5TS)      =  -49171.62083319     eV
 
 
 *********************************** Forces ***********************************
 *                                                                            *
 *                        Cartesian components (eV/A)                         *
 * -------------------------------------------------------------------------- *
 *                   x                    y                    z              *
 *                                                                            *
 * Pd        1      0.18518             -0.57883              0.03600         *
 * Pd        2      0.00367             -0.20012              0.11129         *
 * Pd        3     -0.44756              0.15411             -0.08177         *
 * Pd        4      0.38652              0.43292             -0.24601         *
 * Pd        5     -0.17452              0.05625              0.05135         *
 * Pd        6     -0.09242              0.09539              0.12142         *
 * Pd        7      0.08016             -0.11317             -0.07674         *
 * Pd        8      0.24034              0.30358             -0.23593         *
 * Pd        9     -0.19389             -0.12244             -0.03065         *
 * Pd       10     -0.01789(cons'd)     -0.01024(cons'd)      0.05582(cons'd) *
 * Pd       11     -0.00770(cons'd)      0.11125(cons'd)      0.03470(cons'd) *
 * Pd       12      0.12689(cons'd)      0.00516(cons'd)      0.08905(cons'd) *
 * Pd       13     -0.07382(cons'd)     -0.01439(cons'd)      0.06520(cons'd) *
 * Pd       14     -0.01498(cons'd)     -0.11946(cons'd)      0.10627(cons'd) *
 *                                                                            *
 ******************************************************************************
  
 +------------+-------------+-------------+-----------------+ <-- min BFGS
 |    Step    |   lambda    |   F.delta   |    enthalpy     | <-- min BFGS
 +------------+-------------+-------------+-----------------+ <-- min BFGS
 |  previous  |    0.000000 |    0.000048 |   -49171.647379 | <-- min BFGS
 | trial step |    1.000000 |    0.000048 |   -49171.648692 | <-- min BFGS
 +------------+-------------+-------------+-----------------+ <-- min BFGS
  

--------------------------------------------------------------------------------
 BFGS: improving iteration         1 with line minimization (lambda=171.621159)
--------------------------------------------------------------------------------
 
                           -------------------------------
                                     Cell Contents
                           -------------------------------
 
            xxxxxxxxxxxxxxxxxxxxxxxxxxxxxxxxxxxxxxxxxxxxxxxxxxxxxxxxxxxx
            x  Element    Atom        Fractional coordinates of atoms  x
            x            Number           u          v          w      x
            x----------------------------------------------------------x
            x  Pd           1         0.396484   0.807810   0.295433   x
            x  Pd           2        -0.002614   1.001146   0.294021   x
            x  Pd           3         0.208231   0.404675   0.295159   x
            x  Pd           4         0.792548   0.593535   0.295405   x
            x  Pd           5         0.895547   0.301472   0.150254   x
            x  Pd           6         0.697658   0.902413   0.151113   x
            x  Pd           7         0.502057   0.497111   0.148690   x
            x  Pd           8         0.306151   0.107787   0.146727   x
            x  Pd           9         0.095016   0.696846   0.149262   x
            x  Pd          10         0.600000   0.200000   0.000000   x
            x  Pd          11         0.400000   0.800000   0.000000   x
            x  Pd          12         0.200000   0.400000   0.000000   x
            x  Pd          13         0.000000   0.000000   0.000000   x
            x  Pd          14         0.800000   0.600000   0.000000   x
            xxxxxxxxxxxxxxxxxxxxxxxxxxxxxxxxxxxxxxxxxxxxxxxxxxxxxxxxxxxx
 
 
------------------------------------------------------------------------ <-- SCF
SCF loop      Energy           Fermi           Energy gain       Timer   <-- SCF
                               energy          per atom          (sec)   <-- SCF
------------------------------------------------------------------------ <-- SCF
Initial  -4.91888585E+004  1.88969014E+000                       128.66  <-- SCF
      1  -4.91708402E+004  1.40474351E+000  -1.28702534E+000     130.82  <-- SCF
      2  -4.91718340E+004  1.49459107E+000   7.09867703E-002     134.21  <-- SCF
      3  -4.91723164E+004  1.50172000E+000   3.44578760E-002     137.43  <-- SCF
      4  -4.91717563E+004  1.47227319E+000  -4.00038786E-002     141.00  <-- SCF
      5  -4.91718111E+004  1.47864551E+000   3.91047950E-003     144.17  <-- SCF
      6  -4.91717748E+004  1.48239091E+000  -2.59480967E-003     147.30  <-- SCF
      7  -4.91717736E+004  1.48068399E+000  -7.93570291E-005     150.47  <-- SCF
      8  -4.91717783E+004  1.47651275E+000   3.33876516E-004     153.54  <-- SCF
      9  -4.91717777E+004  1.47434738E+000  -4.12074974E-005     156.48  <-- SCF
     10  -4.91717782E+004  1.47565449E+000   3.07223404E-005     159.32  <-- SCF
     11  -4.91717779E+004  1.47671813E+000  -2.23419408E-005     162.10  <-- SCF
     12  -4.91717780E+004  1.47610141E+000   1.20453019E-005     164.51  <-- SCF
     13  -4.91717780E+004  1.47526115E+000  -8.48095537E-007     166.74  <-- SCF
     14  -4.91717780E+004  1.47485676E+000   1.97839682E-006     169.01  <-- SCF
     15  -4.91717780E+004  1.47522012E+000  -2.07551125E-007     171.24  <-- SCF
     16  -4.91717781E+004  1.47508038E+000   4.59033243E-007     173.46  <-- SCF
------------------------------------------------------------------------ <-- SCF
 
Final energy, E             =  -49171.72089717     eV
Final free energy (E-TS)    =  -49171.77805112     eV
(energies not corrected for finite basis set)
 
NB est. 0K energy (E-0.5TS)      =  -49171.74947414     eV
 
 
 *********************************** Forces ***********************************
 *                                                                            *
 *                        Cartesian components (eV/A)                         *
 * -------------------------------------------------------------------------- *
 *                   x                    y                    z              *
 *                                                                            *
 * Pd        1     -0.10623             -0.25519             -0.16689         *
 * Pd        2      0.29600             -0.08469             -0.09110         *
 * Pd        3     -0.34949              0.00700             -0.05306         *
 * Pd        4      0.21155              0.33612              0.03105         *
 * Pd        5     -0.00160             -0.28013             -0.00667         *
 * Pd        6     -0.06170              0.14766             -0.09364         *
 * Pd        7     -0.02217              0.07476              0.05665         *
 * Pd        8     -0.15788             -0.25284              0.31974         *
 * Pd        9      0.21977              0.24856             -0.19593         *
 * Pd       10      0.10361(cons'd)     -0.03391(cons'd)     -0.06794(cons'd) *
 * Pd       11     -0.04046(cons'd)      0.05417(cons'd)      0.09295(cons'd) *
 * Pd       12      0.01243(cons'd)      0.08769(cons'd)     -0.00337(cons'd) *
 * Pd       13     -0.07215(cons'd)     -0.03119(cons'd)      0.15826(cons'd) *
 * Pd       14     -0.03168(cons'd)     -0.01800(cons'd)      0.01994(cons'd) *
 *                                                                            *
 ******************************************************************************
  
 +------------+-------------+-------------+-----------------+ <-- min BFGS
 |    Step    |   lambda    |   F.delta   |    enthalpy     | <-- min BFGS
 +------------+-------------+-------------+-----------------+ <-- min BFGS
 |  previous  |    0.000000 |    0.000048 |   -49171.647379 | <-- min BFGS
 | trial step |    1.000000 |    0.000048 |   -49171.648692 | <-- min BFGS
 |  line step |  171.621159 |    0.000008 |   -49171.778051 | <-- min BFGS
 +------------+-------------+-------------+-----------------+ <-- min BFGS
  
 BFGS: finished iteration     1 with enthalpy= -4.91717781E+004 eV
  
 +-----------+-----------------+-----------------+------------+-----+ <-- BFGS
 | Parameter |      value      |    tolerance    |    units   | OK? | <-- BFGS
 +-----------+-----------------+-----------------+------------+-----+ <-- BFGS
 |  dE/ion   |   9.333725E-003 |   2.000000E-005 |         eV | No  | <-- BFGS
 |  |F|max   |   4.371346E-001 |   5.000000E-002 |       eV/A | No  | <-- BFGS
 |  |dR|max  |   9.962766E-002 |   1.000000E-003 |          A | No  | <-- BFGS
 +-----------+-----------------+-----------------+------------+-----+ <-- BFGS
  

================================================================================
 Starting BFGS iteration          2 ...
================================================================================
  
 +------------+-------------+-------------+-----------------+ <-- min BFGS
 |    Step    |   lambda    |   F.delta   |    enthalpy     | <-- min BFGS
 +------------+-------------+-------------+-----------------+ <-- min BFGS
 |  previous  |    0.000000 |    0.000295 |   -49171.778051 | <-- min BFGS
 +------------+-------------+-------------+-----------------+ <-- min BFGS
  

--------------------------------------------------------------------------------
 BFGS: starting iteration         2 with trial guess (lambda=  1.000000)
--------------------------------------------------------------------------------
 
                           -------------------------------
                                     Cell Contents
                           -------------------------------
 
            xxxxxxxxxxxxxxxxxxxxxxxxxxxxxxxxxxxxxxxxxxxxxxxxxxxxxxxxxxxx
            x  Element    Atom        Fractional coordinates of atoms  x
            x            Number           u          v          w      x
            x----------------------------------------------------------x
            x  Pd           1         0.397392   0.804895   0.295508   x
            x  Pd           2        -0.002554   1.000140   0.294279   x
            x  Pd           3         0.205956   0.405439   0.294962   x
            x  Pd           4         0.794498   0.595733   0.294824   x
            x  Pd           5         0.894678   0.301709   0.150376   x
            x  Pd           6         0.697190   0.902909   0.151394   x
            x  Pd           7         0.502454   0.496561   0.148512   x
            x  Pd           8         0.307323   0.109261   0.146188   x
            x  Pd           9         0.094083   0.696274   0.149174   x
            x  Pd          10         0.600000   0.200000   0.000000   x
            x  Pd          11         0.400000   0.800000   0.000000   x
            x  Pd          12         0.200000   0.400000   0.000000   x
            x  Pd          13         0.000000   0.000000   0.000000   x
            x  Pd          14         0.800000   0.600000   0.000000   x
            xxxxxxxxxxxxxxxxxxxxxxxxxxxxxxxxxxxxxxxxxxxxxxxxxxxxxxxxxxxx
 
 
------------------------------------------------------------------------ <-- SCF
SCF loop      Energy           Fermi           Energy gain       Timer   <-- SCF
                               energy          per atom          (sec)   <-- SCF
------------------------------------------------------------------------ <-- SCF
Initial  -4.91726693E+004  1.48783456E+000                       176.60  <-- SCF
      1  -4.91717755E+004  1.47783019E+000  -6.38428565E-002     178.75  <-- SCF
      2  -4.91717845E+004  1.47794665E+000   6.39401801E-004     182.12  <-- SCF
      3  -4.91717989E+004  1.47347805E+000   1.02827295E-003     185.28  <-- SCF
      4  -4.91717778E+004  1.47339868E+000  -1.50439422E-003     188.40  <-- SCF
      5  -4.91717850E+004  1.47590522E+000   5.16905795E-004     191.47  <-- SCF
      6  -4.91717812E+004  1.47571900E+000  -2.70858301E-004     194.36  <-- SCF
      7  -4.91717823E+004  1.47515097E+000   7.80608052E-005     197.05  <-- SCF
      8  -4.91717824E+004  1.47402523E+000   3.20574492E-006     199.44  <-- SCF
      9  -4.91717824E+004  1.47377948E+000  -1.40894721E-007     201.69  <-- SCF
     10  -4.91717824E+004  1.47397634E+000   1.77416510E-006     203.96  <-- SCF
     11  -4.91717824E+004  1.47408939E+000  -4.54822002E-008     206.19  <-- SCF
     12  -4.91717824E+004  1.47388958E+000   5.94871735E-007     208.46  <-- SCF
------------------------------------------------------------------------ <-- SCF
 
Final energy, E             =  -49171.72578597     eV
Final free energy (E-TS)    =  -49171.78241054     eV
(energies not corrected for finite basis set)
 
NB est. 0K energy (E-0.5TS)      =  -49171.75409826     eV
 
 
 *********************************** Forces ***********************************
 *                                                                            *
 *                        Cartesian components (eV/A)                         *
 * -------------------------------------------------------------------------- *
 *                   x                    y                    z              *
 *                                                                            *
 * Pd        1     -0.15169             -0.19531             -0.18975         *
 * Pd        2      0.34210             -0.05257             -0.12230         *
 * Pd        3     -0.31579             -0.03241             -0.04471         *
 * Pd        4      0.15787              0.29871              0.09332         *
 * Pd        5      0.03344             -0.34037             -0.01744         *
 * Pd        6     -0.05598              0.15748             -0.13308         *
 * Pd        7     -0.04199              0.11989              0.08308         *
 * Pd        8     -0.23704             -0.35081              0.41385         *
 * Pd        9      0.30302              0.31671             -0.23841         *
 * Pd       10      0.12962(cons'd)     -0.03840(cons'd)     -0.09736(cons'd) *
 * Pd       11     -0.04700(cons'd)      0.04369(cons'd)      0.10366(cons'd) *
 * Pd       12     -0.01073(cons'd)      0.10383(cons'd)     -0.02415(cons'd) *
 * Pd       13     -0.07171(cons'd)     -0.03365(cons'd)      0.17335(cons'd) *
 * Pd       14     -0.03412(cons'd)      0.00320(cons'd)     -0.00007(cons'd) *
 *                                                                            *
 ******************************************************************************
  
 +------------+-------------+-------------+-----------------+ <-- min BFGS
 |    Step    |   lambda    |   F.delta   |    enthalpy     | <-- min BFGS
 +------------+-------------+-------------+-----------------+ <-- min BFGS
 |  previous  |    0.000000 |    0.000295 |   -49171.778051 | <-- min BFGS
 | trial step |    1.000000 |    0.000020 |   -49171.782411 | <-- min BFGS
 +------------+-------------+-------------+-----------------+ <-- min BFGS
  
 BFGS: finished iteration     2 with enthalpy= -4.91717824E+004 eV
  
 +-----------+-----------------+-----------------+------------+-----+ <-- BFGS
 | Parameter |      value      |    tolerance    |    units   | OK? | <-- BFGS
 +-----------+-----------------+-----------------+------------+-----+ <-- BFGS
 |  dE/ion   |   3.113876E-004 |   2.000000E-005 |         eV | No  | <-- BFGS
 |  |F|max   |   5.920537E-001 |   5.000000E-002 |       eV/A | No  | <-- BFGS
 |  |dR|max  |   1.980571E-002 |   1.000000E-003 |          A | No  | <-- BFGS
 +-----------+-----------------+-----------------+------------+-----+ <-- BFGS
  

================================================================================
 Starting BFGS iteration          3 ...
================================================================================
  
 +------------+-------------+-------------+-----------------+ <-- min BFGS
 |    Step    |   lambda    |   F.delta   |    enthalpy     | <-- min BFGS
 +------------+-------------+-------------+-----------------+ <-- min BFGS
 |  previous  |    0.000000 |    0.000049 |   -49171.782411 | <-- min BFGS
 +------------+-------------+-------------+-----------------+ <-- min BFGS
  

--------------------------------------------------------------------------------
 BFGS: starting iteration         3 with trial guess (lambda=  1.000000)
--------------------------------------------------------------------------------
 
                           -------------------------------
                                     Cell Contents
                           -------------------------------
 
            xxxxxxxxxxxxxxxxxxxxxxxxxxxxxxxxxxxxxxxxxxxxxxxxxxxxxxxxxxxx
            x  Element    Atom        Fractional coordinates of atoms  x
            x            Number           u          v          w      x
            x----------------------------------------------------------x
            x  Pd           1         0.397456   0.804576   0.295500   x
            x  Pd           2        -0.002492   1.000033   0.294295   x
            x  Pd           3         0.205679   0.405509   0.294939   x
            x  Pd           4         0.794716   0.595999   0.294774   x
            x  Pd           5         0.894598   0.301676   0.150386   x
            x  Pd           6         0.697135   0.902984   0.151411   x
            x  Pd           7         0.502486   0.496526   0.148501   x
            x  Pd           8         0.307399   0.109348   0.146168   x
            x  Pd           9         0.094041   0.696271   0.149146   x
            x  Pd          10         0.600000   0.200000   0.000000   x
            x  Pd          11         0.400000   0.800000   0.000000   x
            x  Pd          12         0.200000   0.400000   0.000000   x
            x  Pd          13         0.000000   0.000000   0.000000   x
            x  Pd          14         0.800000   0.600000   0.000000   x
            xxxxxxxxxxxxxxxxxxxxxxxxxxxxxxxxxxxxxxxxxxxxxxxxxxxxxxxxxxxx
 
 
------------------------------------------------------------------------ <-- SCF
SCF loop      Energy           Fermi           Energy gain       Timer   <-- SCF
                               energy          per atom          (sec)   <-- SCF
------------------------------------------------------------------------ <-- SCF
Initial  -4.91718439E+004  1.47399893E+000                       211.61  <-- SCF
      1  -4.91717837E+004  1.47389664E+000  -4.30335531E-003     213.63  <-- SCF
      2  -4.91717838E+004  1.47389655E+000   6.69544567E-006     216.55  <-- SCF
      3  -4.91717840E+004  1.47317163E+000   1.56175238E-005     219.39  <-- SCF
      4  -4.91717836E+004  1.47321416E+000  -2.76771057E-005     222.13  <-- SCF
      5  -4.91717838E+004  1.47345751E+000   1.30442080E-005     224.45  <-- SCF
      6  -4.91717837E+004  1.47335956E+000  -3.84880839E-006     226.63  <-- SCF
      7  -4.91717837E+004  1.47325294E+000   1.81124117E-006     228.88  <-- SCF
      8  -4.91717837E+004  1.47307477E+000   1.35974167E-007     231.11  <-- SCF
      9  -4.91717837E+004  1.47300908E+000   6.81629756E-008     233.28  <-- SCF
------------------------------------------------------------------------ <-- SCF
 
Final energy, E             =  -49171.72718060     eV
Final free energy (E-TS)    =  -49171.78374058     eV
(energies not corrected for finite basis set)
 
NB est. 0K energy (E-0.5TS)      =  -49171.75546059     eV
 
 
 *********************************** Forces ***********************************
 *                                                                            *
 *                        Cartesian components (eV/A)                         *
 * -------------------------------------------------------------------------- *
 *                   x                    y                    z              *
 *                                                                            *
 * Pd        1     -0.15399             -0.18936             -0.19006         *
 * Pd        2      0.34399             -0.04972             -0.12398         *
 * Pd        3     -0.31194             -0.03585             -0.04379         *
 * Pd        4      0.15256              0.29414              0.09714         *
 * Pd        5      0.03572             -0.34148             -0.01847         *
 * Pd        6     -0.05487              0.15688             -0.13574         *
 * Pd        7     -0.04250              0.12204              0.08474         *
 * Pd        8     -0.24136             -0.35601              0.41839         *
 * Pd        9      0.30704              0.31919             -0.24207         *
 * Pd       10      0.13093(cons'd)     -0.03838(cons'd)     -0.09833(cons'd) *
 * Pd       11     -0.04693(cons'd)      0.04263(cons'd)      0.10426(cons'd) *
 * Pd       12     -0.01288(cons'd)      0.10466(cons'd)     -0.02513(cons'd) *
 * Pd       13     -0.07167(cons'd)     -0.03369(cons'd)      0.17406(cons'd) *
 * Pd       14     -0.03412(cons'd)      0.00495(cons'd)     -0.00102(cons'd) *
 *                                                                            *
 ******************************************************************************
  
 +------------+-------------+-------------+-----------------+ <-- min BFGS
 |    Step    |   lambda    |   F.delta   |    enthalpy     | <-- min BFGS
 +------------+-------------+-------------+-----------------+ <-- min BFGS
 |  previous  |    0.000000 |    0.000049 |   -49171.782411 | <-- min BFGS
 | trial step |    1.000000 |    0.000047 |   -49171.783741 | <-- min BFGS
 +------------+-------------+-------------+-----------------+ <-- min BFGS
  

--------------------------------------------------------------------------------
 BFGS: improving iteration         3 with line minimization (lambda= 27.333801)
--------------------------------------------------------------------------------
 
                           -------------------------------
                                     Cell Contents
                           -------------------------------
 
            xxxxxxxxxxxxxxxxxxxxxxxxxxxxxxxxxxxxxxxxxxxxxxxxxxxxxxxxxxxx
            x  Element    Atom        Fractional coordinates of atoms  x
            x            Number           u          v          w      x
            x----------------------------------------------------------x
            x  Pd           1         0.399147   0.796167   0.295298   x
            x  Pd           2        -0.000845   0.997194   0.294708   x
            x  Pd           3         0.198401   0.407352   0.294337   x
            x  Pd           4         0.800462   0.603004   0.293460   x
            x  Pd           5         0.892492   0.300809   0.150665   x
            x  Pd           6         0.695679   0.904957   0.151864   x
            x  Pd           7         0.503333   0.495621   0.148211   x
            x  Pd           8         0.309404   0.111639   0.145633   x
            x  Pd           9         0.092942   0.696170   0.148423   x
            x  Pd          10         0.600000   0.200000   0.000000   x
            x  Pd          11         0.400000   0.800000   0.000000   x
            x  Pd          12         0.200000   0.400000   0.000000   x
            x  Pd          13         0.000000   0.000000   0.000000   x
            x  Pd          14         0.800000   0.600000   0.000000   x
            xxxxxxxxxxxxxxxxxxxxxxxxxxxxxxxxxxxxxxxxxxxxxxxxxxxxxxxxxxxx
 
 
------------------------------------------------------------------------ <-- SCF
SCF loop      Energy           Fermi           Energy gain       Timer   <-- SCF
                               energy          per atom          (sec)   <-- SCF
------------------------------------------------------------------------ <-- SCF
Initial  -4.91770988E+004  1.57144046E+000                       235.98  <-- SCF
      1  -4.91716699E+004  1.47204314E+000  -3.87776809E-001     238.22  <-- SCF
      2  -4.91718152E+004  1.48289004E+000   1.03798638E-002     241.68  <-- SCF
      3  -4.91719609E+004  1.47726045E+000   1.04062073E-002     244.87  <-- SCF
      4  -4.91717701E+004  1.46728195E+000  -1.36302370E-002     247.97  <-- SCF
      5  -4.91718162E+004  1.47640478E+000   3.29646700E-003     251.14  <-- SCF
      6  -4.91717930E+004  1.47629136E+000  -1.66176646E-003     254.26  <-- SCF
      7  -4.91717983E+004  1.47474737E+000   3.81833597E-004     257.27  <-- SCF
      8  -4.91717985E+004  1.47168600E+000   1.70104551E-005     260.09  <-- SCF
      9  -4.91717986E+004  1.47084997E+000   1.34977859E-006     262.81  <-- SCF
     10  -4.91717986E+004  1.47167012E+000   4.81317599E-006     265.25  <-- SCF
     11  -4.91717986E+004  1.47197397E+000  -2.58246178E-006     267.55  <-- SCF
     12  -4.91717986E+004  1.47150942E+000   2.43687853E-006     269.80  <-- SCF
     13  -4.91717986E+004  1.47113284E+000  -4.93884148E-007     272.02  <-- SCF
     14  -4.91717986E+004  1.47098523E+000   9.58189287E-007     274.30  <-- SCF
------------------------------------------------------------------------ <-- SCF
 
Final energy, E             =  -49171.74329535     eV
Final free energy (E-TS)    =  -49171.79863329     eV
(energies not corrected for finite basis set)
 
NB est. 0K energy (E-0.5TS)      =  -49171.77096432     eV
 
 
 *********************************** Forces ***********************************
 *                                                                            *
 *                        Cartesian components (eV/A)                         *
 * -------------------------------------------------------------------------- *
 *                   x                    y                    z              *
 *                                                                            *
 * Pd        1     -0.22013             -0.02669             -0.18695         *
 * Pd        2      0.40565              0.05258             -0.15875         *
 * Pd        3     -0.18094             -0.14315             -0.02407         *
 * Pd        4     -0.02212              0.13763              0.20874         *
 * Pd        5      0.10439             -0.36099             -0.04065         *
 * Pd        6     -0.02632              0.14032             -0.20387         *
 * Pd        7     -0.06655              0.17996              0.12982         *
 * Pd        8     -0.37157             -0.49138              0.54109         *
 * Pd        9      0.43211              0.38671             -0.34436         *
 * Pd       10      0.16207(cons'd)     -0.03404(cons'd)     -0.14325(cons'd) *
 * Pd       11     -0.05054(cons'd)      0.02067(cons'd)      0.11767(cons'd) *
 * Pd       12     -0.06430(cons'd)      0.12014(cons'd)     -0.05088(cons'd) *
 * Pd       13     -0.06701(cons'd)     -0.02844(cons'd)      0.18276(cons'd) *
 * Pd       14     -0.03476(cons'd)      0.04669(cons'd)     -0.02732(cons'd) *
 *                                                                            *
 ******************************************************************************
  
 +------------+-------------+-------------+-----------------+ <-- min BFGS
 |    Step    |   lambda    |   F.delta   |    enthalpy     | <-- min BFGS
 +------------+-------------+-------------+-----------------+ <-- min BFGS
 |  previous  |    0.000000 |    0.000049 |   -49171.782411 | <-- min BFGS
 | trial step |    1.000000 |    0.000047 |   -49171.783741 | <-- min BFGS
 |  line step |   27.333801 |   -0.000008 |   -49171.798633 | <-- min BFGS
 +------------+-------------+-------------+-----------------+ <-- min BFGS
  
 BFGS: finished iteration     3 with enthalpy= -4.91717986E+004 eV
  
 +-----------+-----------------+-----------------+------------+-----+ <-- BFGS
 | Parameter |      value      |    tolerance    |    units   | OK? | <-- BFGS
 +-----------+-----------------+-----------------+------------+-----+ <-- BFGS
 |  dE/ion   |   1.158768E-003 |   2.000000E-005 |         eV | No  | <-- BFGS
 |  |F|max   |   8.199382E-001 |   5.000000E-002 |       eV/A | No  | <-- BFGS
 |  |dR|max  |   6.119613E-002 |   1.000000E-003 |          A | No  | <-- BFGS
 +-----------+-----------------+-----------------+------------+-----+ <-- BFGS
  

================================================================================
 Starting BFGS iteration          4 ...
================================================================================
  
 +------------+-------------+-------------+-----------------+ <-- min BFGS
 |    Step    |   lambda    |   F.delta   |    enthalpy     | <-- min BFGS
 +------------+-------------+-------------+-----------------+ <-- min BFGS
 |  previous  |    0.000000 |    0.001062 |   -49171.798633 | <-- min BFGS
 +------------+-------------+-------------+-----------------+ <-- min BFGS
  

--------------------------------------------------------------------------------
 BFGS: starting iteration         4 with trial guess (lambda=  1.000000)
--------------------------------------------------------------------------------
 
                           -------------------------------
                                     Cell Contents
                           -------------------------------
 
            xxxxxxxxxxxxxxxxxxxxxxxxxxxxxxxxxxxxxxxxxxxxxxxxxxxxxxxxxxxx
            x  Element    Atom        Fractional coordinates of atoms  x
            x            Number           u          v          w      x
            x----------------------------------------------------------x
            x  Pd           1         0.398518   0.796150   0.295014   x
            x  Pd           2         0.000167   0.997233   0.294484   x
            x  Pd           3         0.197898   0.407105   0.294311   x
            x  Pd           4         0.800554   0.603469   0.293705   x
            x  Pd           5         0.892760   0.299754   0.150617   x
            x  Pd           6         0.695604   0.905329   0.151620   x
            x  Pd           7         0.503132   0.496081   0.148364   x
            x  Pd           8         0.308471   0.110308   0.146327   x
            x  Pd           9         0.094025   0.697222   0.148098   x
            x  Pd          10         0.600000   0.200000   0.000000   x
            x  Pd          11         0.400000   0.800000   0.000000   x
            x  Pd          12         0.200000   0.400000   0.000000   x
            x  Pd          13         0.000000   0.000000   0.000000   x
            x  Pd          14         0.800000   0.600000   0.000000   x
            xxxxxxxxxxxxxxxxxxxxxxxxxxxxxxxxxxxxxxxxxxxxxxxxxxxxxxxxxxxx
 
 
------------------------------------------------------------------------ <-- SCF
SCF loop      Energy           Fermi           Energy gain       Timer   <-- SCF
                               energy          per atom          (sec)   <-- SCF
------------------------------------------------------------------------ <-- SCF
Initial  -4.91720566E+004  1.47493474E+000                       277.41  <-- SCF
      1  -4.91718228E+004  1.47128584E+000  -1.66981767E-002     279.48  <-- SCF
      2  -4.91718256E+004  1.47129634E+000   1.94936811E-004     282.69  <-- SCF
      3  -4.91718284E+004  1.47089276E+000   2.04483143E-004     285.75  <-- SCF
      4  -4.91718240E+004  1.46983829E+000  -3.12443046E-004     288.81  <-- SCF
      5  -4.91718259E+004  1.47062303E+000   1.30625030E-004     291.74  <-- SCF
      6  -4.91718244E+004  1.47054922E+000  -1.06949511E-004     294.54  <-- SCF
      7  -4.91718249E+004  1.47032381E+000   3.79062326E-005     297.09  <-- SCF
      8  -4.91718249E+004  1.46985560E+000  -5.76251058E-007     299.35  <-- SCF
      9  -4.91718249E+004  1.46980435E+000   5.83967321E-007     301.60  <-- SCF
------------------------------------------------------------------------ <-- SCF
 
Final energy, E             =  -49171.76941358     eV
Final free energy (E-TS)    =  -49171.82490136     eV
(energies not corrected for finite basis set)
 
NB est. 0K energy (E-0.5TS)      =  -49171.79715747     eV
 
 
 *********************************** Forces ***********************************
 *                                                                            *
 *                        Cartesian components (eV/A)                         *
 * -------------------------------------------------------------------------- *
 *                   x                    y                    z              *
 *                                                                            *
 * Pd        1     -0.18665             -0.03845             -0.15347         *
 * Pd        2      0.36255              0.04109             -0.12452         *
 * Pd        3     -0.18039             -0.12185             -0.03065         *
 * Pd        4     -0.00280              0.13179              0.15171         *
 * Pd        5      0.08183             -0.25967             -0.03452         *
 * Pd        6     -0.01493              0.10828             -0.17356         *
 * Pd        7     -0.04511              0.11984              0.11443         *
 * Pd        8     -0.29950             -0.39507              0.45219         *
 * Pd        9      0.34523              0.29849             -0.31163         *
 * Pd       10      0.13008(cons'd)     -0.02338(cons'd)     -0.11351(cons'd) *
 * Pd       11     -0.04170(cons'd)      0.02550(cons'd)      0.10113(cons'd) *
 * Pd       12     -0.05600(cons'd)      0.09963(cons'd)     -0.02847(cons'd) *
 * Pd       13     -0.06372(cons'd)     -0.02124(cons'd)      0.15808(cons'd) *
 * Pd       14     -0.02890(cons'd)      0.03504(cons'd)     -0.00722(cons'd) *
 *                                                                            *
 ******************************************************************************
  
 +------------+-------------+-------------+-----------------+ <-- min BFGS
 |    Step    |   lambda    |   F.delta   |    enthalpy     | <-- min BFGS
 +------------+-------------+-------------+-----------------+ <-- min BFGS
 |  previous  |    0.000000 |    0.001062 |   -49171.798633 | <-- min BFGS
 | trial step |    1.000000 |    0.000868 |   -49171.824901 | <-- min BFGS
 +------------+-------------+-------------+-----------------+ <-- min BFGS
  

--------------------------------------------------------------------------------
 BFGS: improving iteration         4 with line minimization (lambda=  5.465764)
--------------------------------------------------------------------------------
 
                           -------------------------------
                                     Cell Contents
                           -------------------------------
 
            xxxxxxxxxxxxxxxxxxxxxxxxxxxxxxxxxxxxxxxxxxxxxxxxxxxxxxxxxxxx
            x  Element    Atom        Fractional coordinates of atoms  x
            x            Number           u          v          w      x
            x----------------------------------------------------------x
            x  Pd           1         0.395710   0.796071   0.293743   x
            x  Pd           2         0.004691   0.997411   0.293484   x
            x  Pd           3         0.195653   0.406003   0.294194   x
            x  Pd           4         0.800964   0.605543   0.294797   x
            x  Pd           5         0.893954   0.295042   0.150400   x
            x  Pd           6         0.695266   0.906991   0.150527   x
            x  Pd           7         0.502237   0.498137   0.149047   x
            x  Pd           8         0.304302   0.104365   0.149426   x
            x  Pd           9         0.098864   0.701922   0.146646   x
            x  Pd          10         0.600000   0.200000   0.000000   x
            x  Pd          11         0.400000   0.800000   0.000000   x
            x  Pd          12         0.200000   0.400000   0.000000   x
            x  Pd          13         0.000000   0.000000   0.000000   x
            x  Pd          14         0.800000   0.600000   0.000000   x
            xxxxxxxxxxxxxxxxxxxxxxxxxxxxxxxxxxxxxxxxxxxxxxxxxxxxxxxxxxxx
 
 
------------------------------------------------------------------------ <-- SCF
SCF loop      Energy           Fermi           Energy gain       Timer   <-- SCF
                               energy          per atom          (sec)   <-- SCF
------------------------------------------------------------------------ <-- SCF
Initial  -4.91760489E+004  1.57179548E+000                       304.30  <-- SCF
      1  -4.91717611E+004  1.46701785E+000  -3.06267934E-001     306.41  <-- SCF
      2  -4.91718901E+004  1.47435424E+000   9.21336768E-003     309.80  <-- SCF
      3  -4.91719621E+004  1.47374137E+000   5.14005039E-003     312.97  <-- SCF
      4  -4.91718628E+004  1.46705632E+000  -7.09059429E-003     316.06  <-- SCF
      5  -4.91718948E+004  1.47316480E+000   2.28636527E-003     319.25  <-- SCF
      6  -4.91718702E+004  1.47129233E+000  -1.75785434E-003     322.30  <-- SCF
      7  -4.91718767E+004  1.47019242E+000   4.63977740E-004     325.21  <-- SCF
      8  -4.91718764E+004  1.46822771E+000  -2.22151104E-005     327.99  <-- SCF
      9  -4.91718766E+004  1.46832106E+000   1.40398468E-005     330.66  <-- SCF
     10  -4.91718766E+004  1.46904050E+000   8.14080782E-007     332.92  <-- SCF
     11  -4.91718766E+004  1.46914891E+000  -6.42234388E-007     335.18  <-- SCF
------------------------------------------------------------------------ <-- SCF
 
Final energy, E             =  -49171.82073437     eV
Final free energy (E-TS)    =  -49171.87659659     eV
(energies not corrected for finite basis set)
 
NB est. 0K energy (E-0.5TS)      =  -49171.84866548     eV
 
 
 *********************************** Forces ***********************************
 *                                                                            *
 *                        Cartesian components (eV/A)                         *
 * -------------------------------------------------------------------------- *
 *                   x                    y                    z              *
 *                                                                            *
 * Pd        1     -0.01544             -0.10404              0.02469         *
 * Pd        2      0.13122             -0.02126              0.06219         *
 * Pd        3     -0.16820             -0.02188             -0.05583         *
 * Pd        4      0.06509              0.11135             -0.07752         *
 * Pd        5     -0.02159              0.17043             -0.01653         *
 * Pd        6      0.02248             -0.03979             -0.04474         *
 * Pd        7      0.05287             -0.13330              0.04637         *
 * Pd        8      0.04781              0.04862              0.03956         *
 * Pd        9     -0.04318             -0.10005             -0.17938         *
 * Pd       10     -0.00133(cons'd)      0.02297(cons'd)      0.00056(cons'd) *
 * Pd       11      0.00470(cons'd)      0.04827(cons'd)      0.01952(cons'd) *
 * Pd       12     -0.02285(cons'd)      0.01772(cons'd)      0.06304(cons'd) *
 * Pd       13     -0.04693(cons'd)      0.01443(cons'd)      0.04205(cons'd) *
 * Pd       14     -0.00465(cons'd)     -0.01348(cons'd)      0.07600(cons'd) *
 *                                                                            *
 ******************************************************************************
  
 +------------+-------------+-------------+-----------------+ <-- min BFGS
 |    Step    |   lambda    |   F.delta   |    enthalpy     | <-- min BFGS
 +------------+-------------+-------------+-----------------+ <-- min BFGS
 |  previous  |    0.000000 |    0.001062 |   -49171.798633 | <-- min BFGS
 | trial step |    1.000000 |    0.000868 |   -49171.824901 | <-- min BFGS
 |  line step |    5.465764 |   -0.000024 |   -49171.876597 | <-- min BFGS
 +------------+-------------+-------------+-----------------+ <-- min BFGS
  
 BFGS: finished iteration     4 with enthalpy= -4.91718766E+004 eV
  
 +-----------+-----------------+-----------------+------------+-----+ <-- BFGS
 | Parameter |      value      |    tolerance    |    units   | OK? | <-- BFGS
 +-----------+-----------------+-----------------+------------+-----+ <-- BFGS
 |  dE/ion   |   5.568807E-003 |   2.000000E-005 |         eV | No  | <-- BFGS
 |  |F|max   |   2.098845E-001 |   5.000000E-002 |       eV/A | No  | <-- BFGS
 |  |dR|max  |   7.421164E-002 |   1.000000E-003 |          A | No  | <-- BFGS
 +-----------+-----------------+-----------------+------------+-----+ <-- BFGS
  

================================================================================
 Starting BFGS iteration          5 ...
================================================================================
 
Writing model to substrate_2layers.check
  
 +------------+-------------+-------------+-----------------+ <-- min BFGS
 |    Step    |   lambda    |   F.delta   |    enthalpy     | <-- min BFGS
 +------------+-------------+-------------+-----------------+ <-- min BFGS
 |  previous  |    0.000000 |    0.000616 |   -49171.876597 | <-- min BFGS
 +------------+-------------+-------------+-----------------+ <-- min BFGS
  

--------------------------------------------------------------------------------
 BFGS: starting iteration         5 with trial guess (lambda=  1.000000)
--------------------------------------------------------------------------------
 
                           -------------------------------
                                     Cell Contents
                           -------------------------------
 
            xxxxxxxxxxxxxxxxxxxxxxxxxxxxxxxxxxxxxxxxxxxxxxxxxxxxxxxxxxxx
            x  Element    Atom        Fractional coordinates of atoms  x
            x            Number           u          v          w      x
            x----------------------------------------------------------x
            x  Pd           1         0.396449   0.790527   0.293446   x
            x  Pd           2         0.006385   0.995571   0.293629   x
            x  Pd           3         0.190560   0.407060   0.293779   x
            x  Pd           4         0.804794   0.610425   0.294073   x
            x  Pd           5         0.892726   0.293883   0.150553   x
            x  Pd           6         0.694270   0.908498   0.150678   x
            x  Pd           7         0.502683   0.497794   0.148951   x
            x  Pd           8         0.305076   0.105096   0.149485   x
            x  Pd           9         0.098773   0.702457   0.145966   x
            x  Pd          10         0.600000   0.200000   0.000000   x
            x  Pd          11         0.400000   0.800000   0.000000   x
            x  Pd          12         0.200000   0.400000   0.000000   x
            x  Pd          13         0.000000   0.000000   0.000000   x
            x  Pd          14         0.800000   0.600000   0.000000   x
            xxxxxxxxxxxxxxxxxxxxxxxxxxxxxxxxxxxxxxxxxxxxxxxxxxxxxxxxxxxx
 
 
------------------------------------------------------------------------ <-- SCF
SCF loop      Energy           Fermi           Energy gain       Timer   <-- SCF
                               energy          per atom          (sec)   <-- SCF
------------------------------------------------------------------------ <-- SCF
Initial  -4.91746626E+004  1.50783259E+000                       338.58  <-- SCF
      1  -4.91718490E+004  1.47265289E+000  -2.00968190E-001     340.78  <-- SCF
      2  -4.91718923E+004  1.47468602E+000   3.09490222E-003     344.15  <-- SCF
      3  -4.91719506E+004  1.46962798E+000   4.15892215E-003     347.34  <-- SCF
      4  -4.91718705E+004  1.46434308E+000  -5.71473160E-003     350.46  <-- SCF
      5  -4.91718942E+004  1.47102951E+000   1.69068577E-003     353.63  <-- SCF
      6  -4.91718814E+004  1.47005914E+000  -9.16820535E-004     356.72  <-- SCF
      7  -4.91718847E+004  1.46882215E+000   2.40538350E-004     359.56  <-- SCF
      8  -4.91718848E+004  1.46670398E+000   3.16196198E-007     362.23  <-- SCF
      9  -4.91718848E+004  1.46632345E+000   3.15298089E-006     364.66  <-- SCF
     10  -4.91718848E+004  1.46680926E+000   2.02669639E-006     366.92  <-- SCF
     11  -4.91718848E+004  1.46693869E+000  -6.97825069E-007     369.15  <-- SCF
     12  -4.91718848E+004  1.46661631E+000   1.07885821E-006     371.40  <-- SCF
     13  -4.91718848E+004  1.46631254E+000  -7.84804944E-008     373.61  <-- SCF
     14  -4.91718848E+004  1.46614728E+000   5.39908608E-007     375.90  <-- SCF
------------------------------------------------------------------------ <-- SCF
 
Final energy, E             =  -49171.82912481     eV
Final free energy (E-TS)    =  -49171.88483553     eV
(energies not corrected for finite basis set)
 
NB est. 0K energy (E-0.5TS)      =  -49171.85698017     eV
 
 
 *********************************** Forces ***********************************
 *                                                                            *
 *                        Cartesian components (eV/A)                         *
 * -------------------------------------------------------------------------- *
 *                   x                    y                    z              *
 *                                                                            *
 * Pd        1     -0.03625              0.01756              0.04454         *
 * Pd        2      0.15615              0.06503              0.05630         *
 * Pd        3     -0.06063             -0.09267             -0.04623         *
 * Pd        4     -0.07574             -0.00554             -0.03719         *
 * Pd        5      0.01277              0.21250             -0.03208         *
 * Pd        6      0.04174             -0.08473             -0.06703         *
 * Pd        7      0.05232             -0.14101              0.05043         *
 * Pd        8      0.00310              0.01487              0.07516         *
 * Pd        9     -0.00823             -0.10141             -0.21107         *
 * Pd       10     -0.00049(cons'd)      0.03224(cons'd)     -0.01264(cons'd) *
 * Pd       11      0.01337(cons'd)      0.04074(cons'd)      0.01702(cons'd) *
 * Pd       12     -0.04852(cons'd)      0.01190(cons'd)      0.06072(cons'd) *
 * Pd       13     -0.04450(cons'd)      0.02535(cons'd)      0.03119(cons'd) *
 * Pd       14     -0.00510(cons'd)      0.00515(cons'd)      0.07088(cons'd) *
 *                                                                            *
 ******************************************************************************
  
 +------------+-------------+-------------+-----------------+ <-- min BFGS
 |    Step    |   lambda    |   F.delta   |    enthalpy     | <-- min BFGS
 +------------+-------------+-------------+-----------------+ <-- min BFGS
 |  previous  |    0.000000 |    0.000616 |   -49171.876597 | <-- min BFGS
 | trial step |    1.000000 |   -0.000030 |   -49171.884836 | <-- min BFGS
 +------------+-------------+-------------+-----------------+ <-- min BFGS
  
 BFGS: finished iteration     5 with enthalpy= -4.91718848E+004 eV
  
 +-----------+-----------------+-----------------+------------+-----+ <-- BFGS
 | Parameter |      value      |    tolerance    |    units   | OK? | <-- BFGS
 +-----------+-----------------+-----------------+------------+-----+ <-- BFGS
 |  dE/ion   |   5.884960E-004 |   2.000000E-005 |         eV | No  | <-- BFGS
 |  |F|max   |   2.343145E-001 |   5.000000E-002 |       eV/A | No  | <-- BFGS
 |  |dR|max  |   3.976617E-002 |   1.000000E-003 |          A | No  | <-- BFGS
 +-----------+-----------------+-----------------+------------+-----+ <-- BFGS
  

================================================================================
 Starting BFGS iteration          6 ...
================================================================================
  
 +------------+-------------+-------------+-----------------+ <-- min BFGS
 |    Step    |   lambda    |   F.delta   |    enthalpy     | <-- min BFGS
 +------------+-------------+-------------+-----------------+ <-- min BFGS
 |  previous  |    0.000000 |    0.000008 |   -49171.884836 | <-- min BFGS
 +------------+-------------+-------------+-----------------+ <-- min BFGS
  

--------------------------------------------------------------------------------
 BFGS: starting iteration         6 with trial guess (lambda=  1.000000)
--------------------------------------------------------------------------------
 
                           -------------------------------
                                     Cell Contents
                           -------------------------------
 
            xxxxxxxxxxxxxxxxxxxxxxxxxxxxxxxxxxxxxxxxxxxxxxxxxxxxxxxxxxxx
            x  Element    Atom        Fractional coordinates of atoms  x
            x            Number           u          v          w      x
            x----------------------------------------------------------x
            x  Pd           1         0.396417   0.790775   0.293465   x
            x  Pd           2         0.006325   0.995662   0.293629   x
            x  Pd           3         0.190780   0.407002   0.293795   x
            x  Pd           4         0.804613   0.610204   0.294100   x
            x  Pd           5         0.892780   0.293974   0.150544   x
            x  Pd           6         0.694321   0.908416   0.150669   x
            x  Pd           7         0.502673   0.497785   0.148957   x
            x  Pd           8         0.305050   0.105077   0.149481   x
            x  Pd           9         0.098767   0.702410   0.145984   x
            x  Pd          10         0.600000   0.200000   0.000000   x
            x  Pd          11         0.400000   0.800000   0.000000   x
            x  Pd          12         0.200000   0.400000   0.000000   x
            x  Pd          13         0.000000   0.000000   0.000000   x
            x  Pd          14         0.800000   0.600000   0.000000   x
            xxxxxxxxxxxxxxxxxxxxxxxxxxxxxxxxxxxxxxxxxxxxxxxxxxxxxxxxxxxx
 
 
------------------------------------------------------------------------ <-- SCF
SCF loop      Energy           Fermi           Energy gain       Timer   <-- SCF
                               energy          per atom          (sec)   <-- SCF
------------------------------------------------------------------------ <-- SCF
Initial  -4.91718941E+004  1.46591726E+000                       378.93  <-- SCF
      1  -4.91718850E+004  1.46585689E+000  -6.49120579E-004     380.88  <-- SCF
      2  -4.91718850E+004  1.46585683E+000   4.29735618E-006     383.73  <-- SCF
      3  -4.91718852E+004  1.46597580E+000   1.37666128E-005     386.45  <-- SCF
      4  -4.91718849E+004  1.46600524E+000  -2.26703102E-005     389.07  <-- SCF
      5  -4.91718851E+004  1.46564717E+000   9.67626816E-006     391.36  <-- SCF
      6  -4.91718850E+004  1.46564904E+000  -2.06350508E-006     393.57  <-- SCF
      7  -4.91718850E+004  1.46564435E+000   1.02203407E-006     395.82  <-- SCF
      8  -4.91718850E+004  1.46562381E+000   1.57173120E-007     398.03  <-- SCF
      9  -4.91718850E+004  1.46558705E+000   9.70905653E-008     400.26  <-- SCF
------------------------------------------------------------------------ <-- SCF
 
Final energy, E             =  -49171.82931161     eV
Final free energy (E-TS)    =  -49171.88504718     eV
(energies not corrected for finite basis set)
 
NB est. 0K energy (E-0.5TS)      =  -49171.85717940     eV
 
 
 *********************************** Forces ***********************************
 *                                                                            *
 *                        Cartesian components (eV/A)                         *
 * -------------------------------------------------------------------------- *
 *                   x                    y                    z              *
 *                                                                            *
 * Pd        1     -0.03624              0.01102              0.04235         *
 * Pd        2      0.15467              0.06005              0.05530         *
 * Pd        3     -0.06587             -0.08832             -0.04657         *
 * Pd        4     -0.06776              0.00077             -0.03889         *
 * Pd        5      0.01128              0.20777             -0.03123         *
 * Pd        6      0.04120             -0.08135             -0.06574         *
 * Pd        7      0.05127             -0.13936              0.05061         *
 * Pd        8      0.00440              0.01507              0.07385         *
 * Pd        9     -0.00853             -0.09978             -0.20728         *
 * Pd       10     -0.00026(cons'd)      0.03179(cons'd)     -0.01209(cons'd) *
 * Pd       11      0.01292(cons'd)      0.04090(cons'd)      0.01724(cons'd) *
 * Pd       12     -0.04714(cons'd)      0.01191(cons'd)      0.06028(cons'd) *
 * Pd       13     -0.04448(cons'd)      0.02520(cons'd)      0.03181(cons'd) *
 * Pd       14     -0.00549(cons'd)      0.00432(cons'd)      0.07034(cons'd) *
 *                                                                            *
 ******************************************************************************
  
 +------------+-------------+-------------+-----------------+ <-- min BFGS
 |    Step    |   lambda    |   F.delta   |    enthalpy     | <-- min BFGS
 +------------+-------------+-------------+-----------------+ <-- min BFGS
 |  previous  |    0.000000 |    0.000008 |   -49171.884836 | <-- min BFGS
 | trial step |    1.000000 |    0.000006 |   -49171.885047 | <-- min BFGS
 +------------+-------------+-------------+-----------------+ <-- min BFGS
  

--------------------------------------------------------------------------------
 BFGS: improving iteration         6 with line minimization (lambda=  4.916392)
--------------------------------------------------------------------------------
 
                           -------------------------------
                                     Cell Contents
                           -------------------------------
 
            xxxxxxxxxxxxxxxxxxxxxxxxxxxxxxxxxxxxxxxxxxxxxxxxxxxxxxxxxxxx
            x  Element    Atom        Fractional coordinates of atoms  x
            x            Number           u          v          w      x
            x----------------------------------------------------------x
            x  Pd           1         0.396289   0.791746   0.293538   x
            x  Pd           2         0.006086   0.996015   0.293627   x
            x  Pd           3         0.191644   0.406774   0.293855   x
            x  Pd           4         0.803904   0.609340   0.294207   x
            x  Pd           5         0.892991   0.294333   0.150511   x
            x  Pd           6         0.694521   0.908094   0.150632   x
            x  Pd           7         0.502632   0.497747   0.148983   x
            x  Pd           8         0.304950   0.105004   0.149468   x
            x  Pd           9         0.098741   0.702223   0.146055   x
            x  Pd          10         0.600000   0.200000   0.000000   x
[...]
            x  Pd          10         0.600000   0.200000   0.000000   x
            x  Pd          11         0.400000   0.800000   0.000000   x
            x  Pd          12         0.200000   0.400000   0.000000   x
            x  Pd          13         0.000000   0.000000   0.000000   x
            x  Pd          14         0.800000   0.600000   0.000000   x
            xxxxxxxxxxxxxxxxxxxxxxxxxxxxxxxxxxxxxxxxxxxxxxxxxxxxxxxxxxxx
 
 
------------------------------------------------------------------------ <-- SCF
SCF loop      Energy           Fermi           Energy gain       Timer   <-- SCF
                               energy          per atom          (sec)   <-- SCF
------------------------------------------------------------------------ <-- SCF
Initial  -4.91720609E+004  1.46599738E+000                       586.57  <-- SCF
      1  -4.91718969E+004  1.46453313E+000  -1.17097523E-002     588.65  <-- SCF
      2  -4.91718982E+004  1.46453273E+000   8.64147657E-005     591.88  <-- SCF
      3  -4.91718989E+004  1.46377077E+000   5.36653445E-005     594.92  <-- SCF
      4  -4.91718976E+004  1.46366896E+000  -9.42551422E-005     597.94  <-- SCF
      5  -4.91718981E+004  1.46469076E+000   3.45667329E-005     600.70  <-- SCF
      6  -4.91718976E+004  1.46430455E+000  -3.02578717E-005     603.39  <-- SCF
      7  -4.91718978E+004  1.46412440E+000   1.34875700E-005     605.75  <-- SCF
      8  -4.91718978E+004  1.46383890E+000  -4.12944702E-007     607.98  <-- SCF
      9  -4.91718978E+004  1.46390287E+000   2.52110556E-007     610.18  <-- SCF
------------------------------------------------------------------------ <-- SCF
 
Final energy, E             =  -49171.84044335     eV
Final free energy (E-TS)    =  -49171.89783453     eV
(energies not corrected for finite basis set)
 
NB est. 0K energy (E-0.5TS)      =  -49171.86913894     eV
 
 
 *********************************** Forces ***********************************
 *                                                                            *
 *                        Cartesian components (eV/A)                         *
 * -------------------------------------------------------------------------- *
 *                   x                    y                    z              *
 *                                                                            *
 * Pd        1      0.02567             -0.00111             -0.00202         *
 * Pd        2     -0.00077              0.01832             -0.01674         *
 * Pd        3     -0.00889             -0.02112              0.01626         *
 * Pd        4     -0.01177              0.00046              0.00255         *
 * Pd        5      0.01563             -0.01222              0.00141         *
 * Pd        6     -0.00516             -0.00747             -0.00369         *
 * Pd        7      0.00352              0.00526             -0.00513         *
 * Pd        8      0.01375             -0.01794             -0.02460         *
 * Pd        9     -0.00393             -0.00435             -0.01913         *
 * Pd       10     -0.00945(cons'd)      0.00175(cons'd)     -0.00782(cons'd) *
 * Pd       11      0.04818(cons'd)      0.01297(cons'd)      0.01771(cons'd) *
 * Pd       12     -0.00579(cons'd)     -0.04678(cons'd)      0.01656(cons'd) *
 * Pd       13     -0.00371(cons'd)      0.06288(cons'd)      0.01207(cons'd) *
 * Pd       14     -0.05728(cons'd)      0.00933(cons'd)      0.01258(cons'd) *
 *                                                                            *
 ******************************************************************************
  
 +------------+-------------+-------------+-----------------+ <-- min BFGS
 |    Step    |   lambda    |   F.delta   |    enthalpy     | <-- min BFGS
 +------------+-------------+-------------+-----------------+ <-- min BFGS
 |  previous  |    0.000000 |    0.000046 |   -49171.897183 | <-- min BFGS
 | trial step |    1.000000 |    0.000001 |   -49171.897835 | <-- min BFGS
 +------------+-------------+-------------+-----------------+ <-- min BFGS
  
 BFGS: finished iteration    11 with enthalpy= -4.91718978E+004 eV
  
 +-----------+-----------------+-----------------+------------+-----+ <-- BFGS
 | Parameter |      value      |    tolerance    |    units   | OK? | <-- BFGS
 +-----------+-----------------+-----------------+------------+-----+ <-- BFGS
 |  dE/ion   |   4.657332E-005 |   2.000000E-005 |         eV | No  | <-- BFGS
 |  |F|max   |   3.341330E-002 |   5.000000E-002 |       eV/A | Yes | <-- BFGS
 |  |dR|max  |   6.469359E-003 |   1.000000E-003 |          A | No  | <-- BFGS
 +-----------+-----------------+-----------------+------------+-----+ <-- BFGS
  

================================================================================
 Starting BFGS iteration         12 ...
================================================================================
  
 +------------+-------------+-------------+-----------------+ <-- min BFGS
 |    Step    |   lambda    |   F.delta   |    enthalpy     | <-- min BFGS
 +------------+-------------+-------------+-----------------+ <-- min BFGS
 |  previous  |    0.000000 |    0.000000 |   -49171.897835 | <-- min BFGS
 +------------+-------------+-------------+-----------------+ <-- min BFGS
  

--------------------------------------------------------------------------------
 BFGS: starting iteration        12 with trial guess (lambda=  1.000000)
--------------------------------------------------------------------------------
 
                           -------------------------------
                                     Cell Contents
                           -------------------------------
 
            xxxxxxxxxxxxxxxxxxxxxxxxxxxxxxxxxxxxxxxxxxxxxxxxxxxxxxxxxxxx
            x  Element    Atom        Fractional coordinates of atoms  x
            x            Number           u          v          w      x
            x----------------------------------------------------------x
            x  Pd           1         0.394839   0.788743   0.293451   x
            x  Pd           2         0.011497   0.996349   0.293767   x
            x  Pd           3         0.187443   0.405420   0.293183   x
            x  Pd           4         0.803676   0.612895   0.293355   x
            x  Pd           5         0.892799   0.297215   0.149820   x
            x  Pd           6         0.696229   0.907204   0.149862   x
            x  Pd           7         0.503082   0.493843   0.149846   x
            x  Pd           8         0.305930   0.104266   0.150102   x
            x  Pd           9         0.099721   0.700762   0.144328   x
            x  Pd          10         0.600000   0.200000   0.000000   x
            x  Pd          11         0.400000   0.800000   0.000000   x
            x  Pd          12         0.200000   0.400000   0.000000   x
            x  Pd          13         0.000000   0.000000   0.000000   x
            x  Pd          14         0.800000   0.600000   0.000000   x
            xxxxxxxxxxxxxxxxxxxxxxxxxxxxxxxxxxxxxxxxxxxxxxxxxxxxxxxxxxxx
 
 
------------------------------------------------------------------------ <-- SCF
SCF loop      Energy           Fermi           Energy gain       Timer   <-- SCF
                               energy          per atom          (sec)   <-- SCF
------------------------------------------------------------------------ <-- SCF
Initial  -4.91718877E+004  1.46396499E+000                       613.29  <-- SCF
      1  -4.91718978E+004  1.46395942E+000   7.25406496E-004     615.18  <-- SCF
      2  -4.91718978E+004  1.46395942E+000   3.33543206E-007     617.37  <-- SCF
      3  -4.91718979E+004  1.46393665E+000   8.40121623E-007     619.56  <-- SCF
      4  -4.91718978E+004  1.46395876E+000  -1.36635309E-006     621.69  <-- SCF
      5  -4.91718978E+004  1.46392067E+000   6.31974321E-007     623.82  <-- SCF
      6  -4.91718978E+004  1.46392823E+000  -1.86873220E-007     625.90  <-- SCF
------------------------------------------------------------------------ <-- SCF
 
Final energy, E             =  -49171.84043953     eV
Final free energy (E-TS)    =  -49171.89783992     eV
(energies not corrected for finite basis set)
 
NB est. 0K energy (E-0.5TS)      =  -49171.86913973     eV
 
 
 *********************************** Forces ***********************************
 *                                                                            *
 *                        Cartesian components (eV/A)                         *
 * -------------------------------------------------------------------------- *
 *                   x                    y                    z              *
 *                                                                            *
 * Pd        1      0.02654             -0.00409             -0.00275         *
 * Pd        2     -0.00117              0.01635             -0.01642         *
 * Pd        3     -0.01142             -0.01971              0.01583         *
 * Pd        4     -0.00837              0.00296              0.00186         *
 * Pd        5      0.01473             -0.01450              0.00236         *
 * Pd        6     -0.00685             -0.00571             -0.00309         *
 * Pd        7      0.00375              0.00654             -0.00553         *
 * Pd        8      0.01396             -0.01736             -0.02420         *
 * Pd        9     -0.00421             -0.00326             -0.01927         *
 * Pd       10     -0.00927(cons'd)      0.00129(cons'd)     -0.00787(cons'd) *
 * Pd       11      0.04844(cons'd)      0.01273(cons'd)      0.01789(cons'd) *
 * Pd       12     -0.00522(cons'd)     -0.04694(cons'd)      0.01645(cons'd) *
 * Pd       13     -0.00343(cons'd)      0.06276(cons'd)      0.01213(cons'd) *
 * Pd       14     -0.05747(cons'd)      0.00893(cons'd)      0.01263(cons'd) *
 *                                                                            *
 ******************************************************************************
  
 +------------+-------------+-------------+-----------------+ <-- min BFGS
 |    Step    |   lambda    |   F.delta   |    enthalpy     | <-- min BFGS
 +------------+-------------+-------------+-----------------+ <-- min BFGS
 |  previous  |    0.000000 |    0.000000 |   -49171.897835 | <-- min BFGS
 | trial step |    1.000000 |    0.000000 |   -49171.897840 | <-- min BFGS
 +------------+-------------+-------------+-----------------+ <-- min BFGS
  
 BFGS: finished iteration    12 with enthalpy= -4.91718978E+004 eV
  
 +-----------+-----------------+-----------------+------------+-----+ <-- BFGS
 | Parameter |      value      |    tolerance    |    units   | OK? | <-- BFGS
 +-----------+-----------------+-----------------+------------+-----+ <-- BFGS
 |  dE/ion   |   3.848687E-007 |   2.000000E-005 |         eV | Yes | <-- BFGS
 |  |F|max   |   3.289691E-002 |   5.000000E-002 |       eV/A | Yes | <-- BFGS
 |  |dR|max  |   5.196434E-004 |   1.000000E-003 |          A | Yes | <-- BFGS
 +-----------+-----------------+-----------------+------------+-----+ <-- BFGS
  
 BFGS: Geometry optimization completed successfully.

================================================================================
 BFGS: Final Configuration:
================================================================================
 
                           -------------------------------
                                     Cell Contents
                           -------------------------------
 
            xxxxxxxxxxxxxxxxxxxxxxxxxxxxxxxxxxxxxxxxxxxxxxxxxxxxxxxxxxxx
            x  Element    Atom        Fractional coordinates of atoms  x
            x            Number           u          v          w      x
            x----------------------------------------------------------x
            x  Pd           1         0.394839   0.788743   0.293451   x
            x  Pd           2         0.011497   0.996349   0.293767   x
            x  Pd           3         0.187443   0.405420   0.293183   x
            x  Pd           4         0.803676   0.612895   0.293355   x
            x  Pd           5         0.892799   0.297215   0.149820   x
            x  Pd           6         0.696229   0.907204   0.149862   x
            x  Pd           7         0.503082   0.493843   0.149846   x
            x  Pd           8         0.305930   0.104266   0.150102   x
            x  Pd           9         0.099721   0.700762   0.144328   x
            x  Pd          10         0.600000   0.200000   0.000000   x
            x  Pd          11         0.400000   0.800000   0.000000   x
            x  Pd          12         0.200000   0.400000   0.000000   x
            x  Pd          13         0.000000   0.000000   0.000000   x
            x  Pd          14         0.800000   0.600000   0.000000   x
            xxxxxxxxxxxxxxxxxxxxxxxxxxxxxxxxxxxxxxxxxxxxxxxxxxxxxxxxxxxx
 
 
 BFGS: Final Enthalpy     = -4.91718978E+004 eV
 BFGS: Final <frequency>  =    1046.30984 cm-1
 
 *********************************** Forces ***********************************
 *                                                                            *
 *                        Cartesian components (eV/A)                         *
 * -------------------------------------------------------------------------- *
 *                   x                    y                    z              *
 *                                                                            *
 * Pd        1      0.02654             -0.00409             -0.00275         *
 * Pd        2     -0.00117              0.01635             -0.01642         *
 * Pd        3     -0.01142             -0.01971              0.01583         *
 * Pd        4     -0.00837              0.00296              0.00186         *
 * Pd        5      0.01473             -0.01450              0.00236         *
 * Pd        6     -0.00685             -0.00571             -0.00309         *
 * Pd        7      0.00375              0.00654             -0.00553         *
 * Pd        8      0.01396             -0.01736             -0.02420         *
 * Pd        9     -0.00421             -0.00326             -0.01927         *
 * Pd       10     -0.00927(cons'd)      0.00129(cons'd)     -0.00787(cons'd) *
 * Pd       11      0.04844(cons'd)      0.01273(cons'd)      0.01789(cons'd) *
 * Pd       12     -0.00522(cons'd)     -0.04694(cons'd)      0.01645(cons'd) *
 * Pd       13     -0.00343(cons'd)      0.06276(cons'd)      0.01213(cons'd) *
 * Pd       14     -0.05747(cons'd)      0.00893(cons'd)      0.01263(cons'd) *
 *                                                                            *
 ******************************************************************************
 
 Pseudo atomic calculation performed for Pd 4s2 4p6 4d10
 
 Converged in 50 iterations to a total energy of -3508.6287 eV
 
Charge spilling parameter for spin component 1 = 0.06%
 
     Atomic Populations (Mulliken)
     -----------------------------
Species   Ion     s      p      d      f     Total  Charge (e)
==============================================================
  Pd       1     2.63   6.18   9.24   0.00  18.05    -0.05
  Pd       2     2.63   6.18   9.24   0.00  18.05    -0.05
  Pd       3     2.63   6.18   9.24   0.00  18.05    -0.05
  Pd       4     2.63   6.18   9.24   0.00  18.05    -0.05
  Pd       5     2.56   6.28   9.13   0.00  17.97     0.03
  Pd       6     2.56   6.28   9.13   0.00  17.97     0.03
  Pd       7     2.56   6.28   9.13   0.00  17.97     0.03
  Pd       8     2.56   6.28   9.13   0.00  17.97     0.03
  Pd       9     2.49   6.20   9.10   0.00  17.78     0.22
  Pd      10     2.65   6.24   9.22   0.00  18.11    -0.11
  Pd      11     2.58   6.19   9.23   0.00  18.00     0.00
  Pd      12     2.58   6.19   9.23   0.00  18.00     0.00
  Pd      13     2.58   6.19   9.23   0.00  18.00     0.00
  Pd      14     2.58   6.19   9.23   0.00  18.00     0.00
==============================================================
 
     Bond                     Population      Length (A)
============================================================
  Pd 004 --   Pd 006               0.08        2.70303
  Pd 003 --   Pd 005               0.08        2.70444
  Pd 002 --   Pd 008               0.08        2.70582
  Pd 001 --   Pd 007               0.08        2.70777
  Pd 001 --   Pd 003               0.22        2.71372
  Pd 001 --   Pd 002               0.22        2.71445
  Pd 002 --   Pd 004               0.22        2.71570
  Pd 003 --   Pd 004               0.22        2.71639
  Pd 005 --   Pd 007               0.16        2.71795
  Pd 007 --   Pd 008               0.16        2.71864
  Pd 005 --   Pd 006               0.16        2.71942
  Pd 009 --   Pd 013              -0.04        2.72004
  Pd 006 --   Pd 008               0.16        2.72240
  Pd 009 --   Pd 014              -0.04        2.72358
  Pd 009 --   Pd 011              -0.04        2.72380
  Pd 009 --   Pd 012              -0.04        2.72734
  Pd 003 --   Pd 009              -0.07        2.72896
  Pd 001 --   Pd 009              -0.06        2.73084
  Pd 004 --   Pd 009              -0.07        2.73369
  Pd 002 --   Pd 009              -0.06        2.73604
  Pd 006 --   Pd 010              -0.05        2.73879
  Pd 005 --   Pd 010              -0.06        2.73977
  Pd 007 --   Pd 010              -0.05        2.74393
  Pd 008 --   Pd 010              -0.05        2.74565
  Pd 003 --   Pd 008               0.04        2.74609
  Pd 004 --   Pd 007               0.04        2.74845
  Pd 001 --   Pd 006               0.04        2.75155
  Pd 002 --   Pd 005               0.04        2.75291
  Pd 008 --   Pd 012              -0.08        2.76701
  Pd 003 --   Pd 007               0.05        2.76744
  Pd 001 --   Pd 008               0.05        2.76763
  Pd 006 --   Pd 011              -0.08        2.76875
  Pd 007 --   Pd 014              -0.08        2.76990
  Pd 004 --   Pd 005               0.05        2.77023
  Pd 001 --   Pd 004               0.30        2.77112
  Pd 002 --   Pd 006               0.05        2.77170
  Pd 005 --   Pd 013              -0.08        2.77245
  Pd 002 --   Pd 003               0.30        2.77271
  Pd 005 --   Pd 014              -0.08        2.77568
  Pd 007 --   Pd 012              -0.08        2.77853
  Pd 006 --   Pd 013              -0.08        2.78023
  Pd 013 --   Pd 014               0.27        2.78459
  Pd 012 --   Pd 014               0.27        2.78459
  Pd 010 --   Pd 011               0.28        2.78459
  Pd 010 --   Pd 013               0.28        2.78459
  Pd 011 --   Pd 013               0.27        2.78459
  Pd 010 --   Pd 014               0.28        2.78459
  Pd 010 --   Pd 012               0.28        2.78459
  Pd 012 --   Pd 013               0.27        2.78459
  Pd 011 --   Pd 014               0.27        2.78459
  Pd 011 --   Pd 012               0.27        2.78459
  Pd 008 --   Pd 011              -0.08        2.78619
  Pd 007 --   Pd 011              -0.10        2.80418
  Pd 008 --   Pd 013              -0.10        2.80724
  Pd 005 --   Pd 012              -0.10        2.80794
  Pd 006 --   Pd 014              -0.10        2.80974
  Pd 008 --   Pd 009               0.03        2.82251
  Pd 006 --   Pd 009               0.03        2.82302
  Pd 007 --   Pd 009               0.02        2.82364
  Pd 005 --   Pd 009               0.03        2.82466
  Pd 005 --   Pd 008               0.05        2.83909
  Pd 006 --   Pd 007               0.05        2.84092
============================================================
 
 
Writing model to substrate_2layers.check
 
Writing analysis data to substrate_2layers.castep_bin
Initialisation time =      0.77 s
Calculation time    =    628.29 s
Finalisation time   =      0.43 s
Total time          =    629.48 s
Peak Memory Use     = 336936 kB
